
Host: HongzhoudeMacBook-Pro.local

Timers On : Thu Jul 27 15:19:10 2017
Timers Off: Thu Jul 27 15:19:11 2017

Wall Time:        0.46 seconds


-----------------------------------------------------------

***********************************************************
