
Host: HongzhoudeMacBook-Pro.local

Timers On : Thu Jul 27 15:19:10 2017
Timers Off: Thu Jul 27 15:19:11 2017

Wall Time:        0.46 seconds


-----------------------------------------------------------

***********************************************************

Host: shannon-book.local

Timers On : Fri Jul 28 17:06:45 2017
Timers Off: Fri Jul 28 17:06:45 2017

Wall Time:        0.67 seconds


-----------------------------------------------------------

***********************************************************

Host: shannon-book.local

Timers On : Fri Jul 28 17:07:04 2017
Timers Off: Fri Jul 28 17:07:05 2017

Wall Time:        0.38 seconds


-----------------------------------------------------------

***********************************************************

Host: shannon-book.local

Timers On : Fri Jul 28 17:08:21 2017
Timers Off: Fri Jul 28 17:08:22 2017

Wall Time:        0.32 seconds


-----------------------------------------------------------

***********************************************************

Host: shannon-book.local

Timers On : Fri Jul 28 17:08:58 2017
Timers Off: Fri Jul 28 17:08:58 2017

Wall Time:        0.32 seconds


-----------------------------------------------------------

***********************************************************

Host: shannon-book.local

Timers On : Fri Jul 28 17:11:14 2017
Timers Off: Fri Jul 28 17:11:14 2017

Wall Time:        0.32 seconds


-----------------------------------------------------------

***********************************************************

Host: shannon-book.local

Timers On : Fri Jul 28 17:11:37 2017
Timers Off: Fri Jul 28 17:11:37 2017

Wall Time:        0.34 seconds


-----------------------------------------------------------

***********************************************************

Host: shannon-book.local

Timers On : Fri Jul 28 17:12:33 2017
Timers Off: Fri Jul 28 17:12:34 2017

Wall Time:        0.32 seconds


-----------------------------------------------------------

***********************************************************

Host: shannon-book.local

Timers On : Fri Jul 28 17:12:49 2017
Timers Off: Fri Jul 28 17:12:49 2017

Wall Time:        0.32 seconds


-----------------------------------------------------------

***********************************************************

Host: shannon-book.local

Timers On : Fri Jul 28 17:13:17 2017
Timers Off: Fri Jul 28 17:13:17 2017

Wall Time:        0.32 seconds


-----------------------------------------------------------

***********************************************************

Host: shannon-book.local

Timers On : Fri Jul 28 17:13:50 2017
Timers Off: Fri Jul 28 17:13:50 2017

Wall Time:        0.31 seconds


-----------------------------------------------------------

***********************************************************

Host: shannon-book.local

Timers On : Fri Jul 28 17:16:19 2017
Timers Off: Fri Jul 28 17:16:20 2017

Wall Time:        0.32 seconds


-----------------------------------------------------------

***********************************************************

Host: shannon-book.local

Timers On : Fri Jul 28 17:18:38 2017
Timers Off: Fri Jul 28 17:18:38 2017

Wall Time:        0.17 seconds


-----------------------------------------------------------

***********************************************************

Host: shannon-book.local

Timers On : Fri Jul 28 17:19:04 2017
Timers Off: Fri Jul 28 17:19:04 2017

Wall Time:        0.32 seconds


-----------------------------------------------------------

***********************************************************

Host: shannon-book.local

Timers On : Fri Jul 28 17:20:14 2017
Timers Off: Fri Jul 28 17:20:14 2017

Wall Time:        0.16 seconds


-----------------------------------------------------------

***********************************************************

Host: shannon-book.local

Timers On : Fri Jul 28 17:20:17 2017
Timers Off: Fri Jul 28 17:20:17 2017

Wall Time:        0.17 seconds


-----------------------------------------------------------

***********************************************************

Host: shannon-book.local

Timers On : Fri Jul 28 17:20:36 2017
Timers Off: Fri Jul 28 17:20:36 2017

Wall Time:        0.17 seconds


-----------------------------------------------------------

***********************************************************

Host: shannon-book.local

Timers On : Fri Jul 28 17:20:48 2017
Timers Off: Fri Jul 28 17:20:48 2017

Wall Time:        0.32 seconds


-----------------------------------------------------------

***********************************************************

Host: shannon-book.local

Timers On : Fri Jul 28 17:24:12 2017
Timers Off: Fri Jul 28 17:24:12 2017

Wall Time:        0.32 seconds


-----------------------------------------------------------

***********************************************************

Host: shannon-book.local

Timers On : Fri Jul 28 17:25:39 2017
Timers Off: Fri Jul 28 17:25:39 2017

Wall Time:        0.32 seconds


-----------------------------------------------------------

***********************************************************

Host: shannon-book.local

Timers On : Fri Jul 28 17:26:03 2017
Timers Off: Fri Jul 28 17:26:03 2017

Wall Time:        0.32 seconds


-----------------------------------------------------------

***********************************************************

Host: shannon-book.local

Timers On : Fri Jul 28 17:30:56 2017
Timers Off: Fri Jul 28 17:30:56 2017

Wall Time:        0.32 seconds


-----------------------------------------------------------

***********************************************************

Host: shannon-book.local

Timers On : Fri Jul 28 17:32:43 2017
Timers Off: Fri Jul 28 17:32:43 2017

Wall Time:        0.32 seconds


-----------------------------------------------------------

***********************************************************

Host: shannon-book.local

Timers On : Fri Jul 28 17:33:10 2017
Timers Off: Fri Jul 28 17:33:11 2017

Wall Time:        0.33 seconds


-----------------------------------------------------------

***********************************************************

Host: shannon-book.local

Timers On : Fri Jul 28 17:33:32 2017
Timers Off: Fri Jul 28 17:33:32 2017

Wall Time:        0.33 seconds


-----------------------------------------------------------

***********************************************************

Host: shannon-book.local

Timers On : Fri Jul 28 17:34:08 2017
Timers Off: Fri Jul 28 17:34:08 2017

Wall Time:        0.32 seconds


-----------------------------------------------------------

***********************************************************

Host: shannon-book.local

Timers On : Fri Jul 28 17:37:44 2017
Timers Off: Fri Jul 28 17:37:44 2017

Wall Time:        0.32 seconds


-----------------------------------------------------------

***********************************************************

Host: shannon-book.local

Timers On : Fri Jul 28 17:40:19 2017
Timers Off: Fri Jul 28 17:40:20 2017

Wall Time:        0.77 seconds


-----------------------------------------------------------

***********************************************************

Host: shannon-book.local

Timers On : Fri Jul 28 17:40:38 2017
Timers Off: Fri Jul 28 17:40:38 2017

Wall Time:        0.33 seconds


-----------------------------------------------------------

***********************************************************
