
Host: HongzhoudeMacBook-Pro.local

Timers On : Sun Jul 30 10:08:35 2017
Timers Off: Sun Jul 30 10:08:49 2017

Wall Time:       13.86 seconds


-----------------------------------------------------------

***********************************************************

Host: HongzhoudeMacBook-Pro.local

Timers On : Sun Jul 30 10:39:24 2017
Timers Off: Sun Jul 30 10:39:33 2017

Wall Time:        9.59 seconds


-----------------------------------------------------------

***********************************************************

Host: HongzhoudeMacBook-Pro.local

Timers On : Sun Jul 30 10:39:43 2017
Timers Off: Sun Jul 30 10:39:43 2017

Wall Time:        0.39 seconds


-----------------------------------------------------------

***********************************************************
